<?xml version="1.0"?>

<!-- generated on 05-05-2021 11:01:31 by SUMO gui Version 0.12.3
<?xml version="1.0" encoding="iso-8859-1"?>

<configuration xmlns:xsi="http://www.w3.org/2001/XMLSchema-instance" xsi:noNamespaceSchemaLocation="http://sumo.sf.net/xsd/sumo-gui.exeConfiguration.xsd">

    <input>
        <net-file value="C:\Users\tejas\Documents\move_sumo\vanet.net.xml"/>
        <route-files value="C:\Users\tejas\Documents\move_sumo\vanet.rou.xml"/>
    </input>

    <output>
        <netstate-dump value="C:\Users\tejas\Documents\move_sumo\vanet.sumo.tr"/>
        <emissions-output value="C:\Users\tejas\Documents\move_sumo\output-emissions.xml"/>
        <tripinfo-output value="C:\Users\tejas\Documents\move_sumo\output-tripinfos.xml"/>
        <vehroute-output value="C:\Users\tejas\Documents\move_sumo\output-vehroutes.xml"/>
    </output>

    <time>
        <begin value="0"/>
        <end value="1000"/>
    </time>

    <processing>
        <route-steps value="-1"/>
        <time-to-teleport value="-1"/>
    </processing>

    <report>
        <print-options value="false"/>
    </report>

    <random_number>
        <srand value="23423"/>
    </random_number>

    <gui_only>
        <gui-settings-file value=""/>
    </gui_only>

</configuration>
-->

<sumo-netstate>
    <timestep time="0.00">
        <edge id="D04">
            <lane id="D04_0">
                <vehicle id="f0_0" pos="7.60" speed="0.00"/>
            </lane>
            <lane id="D04_1"/>
        </edge>
        <edge id="R12">
            <lane id="R12_0">
                <vehicle id="f1_0" pos="7.60" speed="0.00"/>
            </lane>
            <lane id="R12_1"/>
        </edge>
    </timestep>
    <timestep time="1.00">
        <edge id="D04">
            <lane id="D04_0">
                <vehicle id="f0_0" pos="9.31" speed="1.71"/>
            </lane>
            <lane id="D04_1"/>
        </edge>
        <edge id="R12">
            <lane id="R12_0">
                <vehicle id="f1_0" pos="9.08" speed="1.48"/>
            </lane>
            <lane id="R12_1"/>
        </edge>
    </timestep>
    <timestep time="2.00">
        <edge id="D04">
            <lane id="D04_0">
                <vehicle id="f0_0" pos="12.95" speed="3.64"/>
            </lane>
            <lane id="D04_1"/>
        </edge>
        <edge id="R12">
            <lane id="R12_0">
                <vehicle id="f1_0" pos="13.06" speed="3.97"/>
            </lane>
            <lane id="R12_1"/>
        </edge>
    </timestep>
    <timestep time="3.00">
        <edge id="D04">
            <lane id="D04_0">
                <vehicle id="f0_0" pos="19.01" speed="6.06"/>
            </lane>
            <lane id="D04_1"/>
        </edge>
        <edge id="R12">
            <lane id="R12_0">
                <vehicle id="f1_0" pos="18.79" speed="5.73"/>
            </lane>
            <lane id="R12_1"/>
        </edge>
    </timestep>
    <timestep time="4.00">
        <edge id="D04">
            <lane id="D04_0">
                <vehicle id="f0_0" pos="27.16" speed="8.15"/>
            </lane>
            <lane id="D04_1"/>
        </edge>
        <edge id="R12">
            <lane id="R12_0">
                <vehicle id="f1_0" pos="26.05" speed="7.26"/>
            </lane>
            <lane id="R12_1"/>
        </edge>
    </timestep>
    <timestep time="5.00">
        <edge id="D04">
            <lane id="D04_0">
                <vehicle id="f0_0" pos="36.78" speed="9.62"/>
            </lane>
            <lane id="D04_1"/>
        </edge>
        <edge id="R12">
            <lane id="R12_0">
                <vehicle id="f1_0" pos="35.03" speed="8.98"/>
            </lane>
            <lane id="R12_1"/>
        </edge>
    </timestep>
    <timestep time="6.00">
        <edge id="D04">
            <lane id="D04_0">
                <vehicle id="f0_0" pos="47.92" speed="11.14"/>
            </lane>
            <lane id="D04_1"/>
        </edge>
        <edge id="R12">
            <lane id="R12_0">
                <vehicle id="f1_0" pos="46.27" speed="11.24"/>
            </lane>
            <lane id="R12_1"/>
        </edge>
    </timestep>
    <timestep time="7.00">
        <edge id="D04">
            <lane id="D04_0">
                <vehicle id="f0_0" pos="60.77" speed="12.85"/>
            </lane>
            <lane id="D04_1"/>
        </edge>
        <edge id="R12">
            <lane id="R12_0">
                <vehicle id="f1_0" pos="59.21" speed="12.93"/>
            </lane>
            <lane id="R12_1"/>
        </edge>
    </timestep>
    <timestep time="8.00">
        <edge id="D04">
            <lane id="D04_0"/>
            <lane id="D04_1">
                <vehicle id="f0_0" pos="75.47" speed="14.70"/>
            </lane>
        </edge>
        <edge id="R12">
            <lane id="R12_0">
                <vehicle id="f1_0" pos="73.68" speed="14.48"/>
            </lane>
            <lane id="R12_1"/>
        </edge>
    </timestep>
    <timestep time="9.00">
        <edge id="D04">
            <lane id="D04_0"/>
            <lane id="D04_1">
                <vehicle id="f0_0" pos="92.17" speed="16.70"/>
            </lane>
        </edge>
        <edge id="R12">
            <lane id="R12_0">
                <vehicle id="f1_0" pos="89.35" speed="15.67"/>
            </lane>
            <lane id="R12_1"/>
        </edge>
    </timestep>
    <timestep time="10.00">
        <edge id="D04">
            <lane id="D04_0"/>
            <lane id="D04_1">
                <vehicle id="f0_0" pos="110.54" speed="18.37"/>
            </lane>
        </edge>
        <edge id="R12">
            <lane id="R12_0">
                <vehicle id="f1_0" pos="106.37" speed="17.02"/>
            </lane>
            <lane id="R12_1"/>
        </edge>
    </timestep>
    <timestep time="11.00">
        <edge id="D04">
            <lane id="D04_0"/>
            <lane id="D04_1">
                <vehicle id="f0_0" pos="130.78" speed="20.24"/>
            </lane>
        </edge>
        <edge id="R12">
            <lane id="R12_0">
                <vehicle id="f1_0" pos="124.88" speed="18.50"/>
            </lane>
            <lane id="R12_1"/>
        </edge>
    </timestep>
    <timestep time="12.00">
        <edge id="D04">
            <lane id="D04_0"/>
            <lane id="D04_1">
                <vehicle id="f0_0" pos="152.60" speed="21.82"/>
            </lane>
        </edge>
        <edge id="R12">
            <lane id="R12_0">
                <vehicle id="f1_0" pos="144.71" speed="19.83"/>
            </lane>
            <lane id="R12_1"/>
        </edge>
    </timestep>
    <timestep time="13.00">
        <edge id="D04">
            <lane id="D04_0"/>
            <lane id="D04_1">
                <vehicle id="f0_0" pos="175.40" speed="22.80"/>
            </lane>
        </edge>
        <edge id="R12">
            <lane id="R12_0">
                <vehicle id="f1_0" pos="165.67" speed="20.96"/>
            </lane>
            <lane id="R12_1"/>
        </edge>
    </timestep>
    <timestep time="14.00">
        <edge id=":n2_7">
            <lane id=":n2_7_0">
                <vehicle id="f1_0" pos="4.20" speed="22.43"/>
            </lane>
        </edge>
        <edge id="D04">
            <lane id="D04_0"/>
            <lane id="D04_1">
                <vehicle id="f0_0" pos="196.35" speed="20.96"/>
            </lane>
        </edge>
    </timestep>
    <timestep time="15.00">
        <edge id="D04">
            <lane id="D04_0"/>
            <lane id="D04_1">
                <vehicle id="f0_0" pos="213.70" speed="17.35"/>
            </lane>
        </edge>
        <edge id="D25">
            <lane id="D25_0">
                <vehicle id="f1_0" pos="23.20" speed="24.00"/>
            </lane>
            <lane id="D25_1"/>
        </edge>
    </timestep>
    <timestep time="16.00">
        <edge id="D04">
            <lane id="D04_0"/>
            <lane id="D04_1">
                <vehicle id="f0_0" pos="227.45" speed="13.75"/>
            </lane>
        </edge>
        <edge id="D25">
            <lane id="D25_0">
                <vehicle id="f1_0" pos="48.88" speed="25.68"/>
            </lane>
            <lane id="D25_1"/>
        </edge>
    </timestep>
    <timestep time="17.00">
        <edge id="D04">
            <lane id="D04_0"/>
            <lane id="D04_1">
                <vehicle id="f0_0" pos="237.63" speed="10.18"/>
            </lane>
        </edge>
        <edge id="D25">
            <lane id="D25_0">
                <vehicle id="f1_0" pos="75.59" speed="26.72"/>
            </lane>
            <lane id="D25_1"/>
        </edge>
    </timestep>
    <timestep time="18.00">
        <edge id="D04">
            <lane id="D04_0"/>
            <lane id="D04_1">
                <vehicle id="f0_0" pos="244.45" speed="6.83"/>
            </lane>
        </edge>
        <edge id="D25">
            <lane id="D25_0">
                <vehicle id="f1_0" pos="100.50" speed="24.91"/>
            </lane>
            <lane id="D25_1"/>
        </edge>
    </timestep>
    <timestep time="19.00">
        <edge id="D04">
            <lane id="D04_0"/>
            <lane id="D04_1">
                <vehicle id="f0_0" pos="247.77" speed="3.32"/>
            </lane>
        </edge>
        <edge id="D25">
            <lane id="D25_0">
                <vehicle id="f1_0" pos="121.61" speed="21.11"/>
            </lane>
            <lane id="D25_1"/>
        </edge>
    </timestep>
    <timestep time="20.00">
        <edge id=":n4_9">
            <lane id=":n4_9_0">
                <vehicle id="f0_0" pos="3.70" speed="5.64"/>
            </lane>
        </edge>
        <edge id="D25">
            <lane id="D25_0">
                <vehicle id="f1_0" pos="139.29" speed="17.68"/>
            </lane>
            <lane id="D25_1"/>
        </edge>
    </timestep>
    <timestep time="21.00">
        <edge id=":n4_9">
            <lane id=":n4_9_0">
                <vehicle id="f0_0" pos="10.62" speed="6.92"/>
            </lane>
        </edge>
        <edge id="D25">
            <lane id="D25_0">
                <vehicle id="f1_0" pos="152.75" speed="13.47"/>
            </lane>
            <lane id="D25_1"/>
        </edge>
    </timestep>
    <timestep time="22.00">
        <edge id=":n4_9">
            <lane id=":n4_9_0">
                <vehicle id="f0_0" pos="19.64" speed="9.02"/>
            </lane>
        </edge>
        <edge id="D25">
            <lane id="D25_0">
                <vehicle id="f1_0" pos="162.70" speed="9.95"/>
            </lane>
            <lane id="D25_1"/>
        </edge>
    </timestep>
    <timestep time="23.00">
        <edge id="D25">
            <lane id="D25_0">
                <vehicle id="f1_0" pos="169.30" speed="6.60"/>
            </lane>
            <lane id="D25_1"/>
        </edge>
        <edge id="U14">
            <lane id="U14_0"/>
            <lane id="U14_1">
                <vehicle id="f0_0" pos="3.91" speed="10.66"/>
            </lane>
        </edge>
    </timestep>
    <timestep time="24.00">
        <edge id="D25">
            <lane id="D25_0">
                <vehicle id="f1_0" pos="172.07" speed="2.76"/>
            </lane>
            <lane id="D25_1"/>
        </edge>
        <edge id="U14">
            <lane id="U14_0"/>
            <lane id="U14_1">
                <vehicle id="f0_0" pos="16.52" speed="12.61"/>
            </lane>
        </edge>
    </timestep>
    <timestep time="25.00">
        <edge id=":n5_0">
            <lane id=":n5_0_0">
                <vehicle id="f1_0" pos="1.89" speed="4.46"/>
            </lane>
        </edge>
        <edge id="U14">
            <lane id="U14_0"/>
            <lane id="U14_1">
                <vehicle id="f0_0" pos="31.17" speed="14.65"/>
            </lane>
        </edge>
    </timestep>
    <timestep time="26.00">
        <edge id=":n5_0">
            <lane id=":n5_0_0">
                <vehicle id="f1_0" pos="8.08" speed="6.19"/>
            </lane>
        </edge>
        <edge id="U14">
            <lane id="U14_0"/>
            <lane id="U14_1">
                <vehicle id="f0_0" pos="47.16" speed="15.99"/>
            </lane>
        </edge>
    </timestep>
    <timestep time="27.00">
        <edge id="L45">
            <lane id="L45_0">
                <vehicle id="f1_0" pos="2.19" speed="7.50"/>
            </lane>
            <lane id="L45_1"/>
        </edge>
        <edge id="U14">
            <lane id="U14_0"/>
            <lane id="U14_1">
                <vehicle id="f0_0" pos="64.49" speed="17.33"/>
            </lane>
        </edge>
    </timestep>
    <timestep time="28.00">
        <edge id="L45">
            <lane id="L45_0">
                <vehicle id="f1_0" pos="10.93" speed="8.75"/>
            </lane>
            <lane id="L45_1"/>
        </edge>
        <edge id="U14">
            <lane id="U14_0"/>
            <lane id="U14_1">
                <vehicle id="f0_0" pos="83.49" speed="19.00"/>
            </lane>
        </edge>
    </timestep>
    <timestep time="29.00">
        <edge id="L45">
            <lane id="L45_0">
                <vehicle id="f1_0" pos="21.42" speed="10.48"/>
            </lane>
            <lane id="L45_1"/>
        </edge>
        <edge id="U14">
            <lane id="U14_0"/>
            <lane id="U14_1">
                <vehicle id="f0_0" pos="103.85" speed="20.36"/>
            </lane>
        </edge>
    </timestep>
    <timestep time="30.00">
        <edge id="L45">
            <lane id="L45_0">
                <vehicle id="f1_0" pos="33.93" speed="12.51"/>
            </lane>
            <lane id="L45_1"/>
        </edge>
        <edge id="U14">
            <lane id="U14_0"/>
            <lane id="U14_1">
                <vehicle id="f0_0" pos="124.13" speed="20.27"/>
            </lane>
        </edge>
    </timestep>
    <timestep time="31.00">
        <edge id="L45">
            <lane id="L45_0"/>
            <lane id="L45_1">
                <vehicle id="f1_0" pos="48.39" speed="14.46"/>
            </lane>
        </edge>
        <edge id="U14">
            <lane id="U14_0"/>
            <lane id="U14_1">
                <vehicle id="f0_0" pos="140.79" speed="16.66"/>
            </lane>
        </edge>
    </timestep>
    <timestep time="32.00">
        <edge id="L45">
            <lane id="L45_0"/>
            <lane id="L45_1">
                <vehicle id="f1_0" pos="64.76" speed="16.37"/>
            </lane>
        </edge>
        <edge id="U14">
            <lane id="U14_0"/>
            <lane id="U14_1">
                <vehicle id="f0_0" pos="154.29" speed="13.50"/>
            </lane>
        </edge>
    </timestep>
    <timestep time="33.00">
        <edge id="L45">
            <lane id="L45_0"/>
            <lane id="L45_1">
                <vehicle id="f1_0" pos="82.86" speed="18.10"/>
            </lane>
        </edge>
        <edge id="U14">
            <lane id="U14_0"/>
            <lane id="U14_1">
                <vehicle id="f0_0" pos="163.44" speed="9.15"/>
            </lane>
        </edge>
    </timestep>
    <timestep time="34.00">
        <edge id="L45">
            <lane id="L45_0"/>
            <lane id="L45_1">
                <vehicle id="f1_0" pos="102.02" speed="19.16"/>
            </lane>
        </edge>
        <edge id="U14">
            <lane id="U14_0"/>
            <lane id="U14_1">
                <vehicle id="f0_0" pos="169.86" speed="6.42"/>
            </lane>
        </edge>
    </timestep>
    <timestep time="35.00">
        <edge id="L45">
            <lane id="L45_0"/>
            <lane id="L45_1">
                <vehicle id="f1_0" pos="122.91" speed="20.89"/>
            </lane>
        </edge>
        <edge id="U14">
            <lane id="U14_0"/>
            <lane id="U14_1">
                <vehicle id="f0_0" pos="172.09" speed="2.23"/>
            </lane>
        </edge>
    </timestep>
    <timestep time="36.00">
        <edge id=":n1_5">
            <lane id=":n1_5_0">
                <vehicle id="f0_0" pos="1.78" speed="4.33"/>
            </lane>
        </edge>
        <edge id="L45">
            <lane id="L45_0"/>
            <lane id="L45_1">
                <vehicle id="f1_0" pos="141.97" speed="19.06"/>
            </lane>
        </edge>
    </timestep>
    <timestep time="37.00">
        <edge id=":n1_5">
            <lane id=":n1_5_0">
                <vehicle id="f0_0" pos="7.89" speed="6.11"/>
            </lane>
        </edge>
        <edge id="L45">
            <lane id="L45_0"/>
            <lane id="L45_1">
                <vehicle id="f1_0" pos="157.32" speed="15.35"/>
            </lane>
        </edge>
    </timestep>
    <timestep time="38.00">
        <edge id="L01">
            <lane id="L01_0"/>
            <lane id="L01_1">
                <vehicle id="f0_0" pos="0.52" speed="8.27"/>
            </lane>
        </edge>
        <edge id="L45">
            <lane id="L45_0"/>
            <lane id="L45_1">
                <vehicle id="f1_0" pos="168.71" speed="11.38"/>
            </lane>
        </edge>
    </timestep>
    <timestep time="39.00">
        <edge id="L01">
            <lane id="L01_0"/>
            <lane id="L01_1">
                <vehicle id="f0_0" pos="11.04" speed="10.51"/>
            </lane>
        </edge>
        <edge id="L45">
            <lane id="L45_0"/>
            <lane id="L45_1">
                <vehicle id="f1_0" pos="176.64" speed="7.94"/>
            </lane>
        </edge>
    </timestep>
    <timestep time="40.00">
        <edge id="D04">
            <lane id="D04_0">
                <vehicle id="f0_1" pos="7.60" speed="0.00"/>
            </lane>
            <lane id="D04_1"/>
        </edge>
        <edge id="L01">
            <lane id="L01_0"/>
            <lane id="L01_1">
                <vehicle id="f0_0" pos="22.99" speed="11.96"/>
            </lane>
        </edge>
        <edge id="L45">
            <lane id="L45_0"/>
            <lane id="L45_1">
                <vehicle id="f1_0" pos="180.97" speed="4.32"/>
            </lane>
        </edge>
        <edge id="R12">
            <lane id="R12_0">
                <vehicle id="f1_1" pos="7.60" speed="0.00"/>
            </lane>
            <lane id="R12_1"/>
        </edge>
    </timestep>
    <timestep time="41.00">
        <edge id=":n4_6">
            <lane id=":n4_6_0">
                <vehicle id="f1_0" pos="3.33" speed="6.27"/>
            </lane>
        </edge>
        <edge id="D04">
            <lane id="D04_0">
                <vehicle id="f0_1" pos="9.93" speed="2.33"/>
            </lane>
            <lane id="D04_1"/>
        </edge>
        <edge id="L01">
            <lane id="L01_0"/>
            <lane id="L01_1">
                <vehicle id="f0_0" pos="36.40" speed="13.41"/>
            </lane>
        </edge>
        <edge id="R12">
            <lane id="R12_0">
                <vehicle id="f1_1" pos="9.84" speed="2.24"/>
            </lane>
            <lane id="R12_1"/>
        </edge>
    </timestep>
    <timestep time="42.00">
        <edge id="D04">
            <lane id="D04_0">
                <vehicle id="f0_1" pos="14.31" speed="4.38"/>
            </lane>
            <lane id="D04_1"/>
        </edge>
        <edge id="L01">
            <lane id="L01_0"/>
            <lane id="L01_1">
                <vehicle id="f0_0" pos="51.39" speed="14.99"/>
            </lane>
        </edge>
        <edge id="R12">
            <lane id="R12_0">
                <vehicle id="f1_1" pos="13.85" speed="4.01"/>
            </lane>
            <lane id="R12_1"/>
        </edge>
        <edge id="R45">
            <lane id="R45_0"/>
            <lane id="R45_1">
                <vehicle id="f1_0" pos="6.21" speed="7.69"/>
            </lane>
        </edge>
    </timestep>
    <timestep time="43.00">
        <edge id="D04">
            <lane id="D04_0">
                <vehicle id="f0_1" pos="20.69" speed="6.38"/>
            </lane>
            <lane id="D04_1"/>
        </edge>
        <edge id="L01">
            <lane id="L01_0"/>
            <lane id="L01_1">
                <vehicle id="f0_0" pos="67.46" speed="16.07"/>
            </lane>
        </edge>
        <edge id="R12">
            <lane id="R12_0">
                <vehicle id="f1_1" pos="19.81" speed="5.97"/>
            </lane>
            <lane id="R12_1"/>
        </edge>
        <edge id="R45">
            <lane id="R45_0"/>
            <lane id="R45_1">
                <vehicle id="f1_0" pos="15.56" speed="9.35"/>
            </lane>
        </edge>
    </timestep>
    <timestep time="44.00">
        <edge id="D04">
            <lane id="D04_0">
                <vehicle id="f0_1" pos="29.32" speed="8.63"/>
            </lane>
            <lane id="D04_1"/>
        </edge>
        <edge id="L01">
            <lane id="L01_0"/>
            <lane id="L01_1">
                <vehicle id="f0_0" pos="84.69" speed="17.23"/>
            </lane>
        </edge>
        <edge id="R12">
            <lane id="R12_0">
                <vehicle id="f1_1" pos="27.81" speed="8.00"/>
            </lane>
            <lane id="R12_1"/>
        </edge>
        <edge id="R45">
            <lane id="R45_0"/>
            <lane id="R45_1">
                <vehicle id="f1_0" pos="27.14" speed="11.58"/>
            </lane>
        </edge>
    </timestep>
    <timestep time="45.00">
        <edge id="D04">
            <lane id="D04_0">
                <vehicle id="f0_1" pos="39.69" speed="10.37"/>
            </lane>
            <lane id="D04_1"/>
        </edge>
        <edge id="L01">
            <lane id="L01_0"/>
            <lane id="L01_1">
                <vehicle id="f0_0" pos="103.49" speed="18.79"/>
            </lane>
        </edge>
        <edge id="R12">
            <lane id="R12_0">
                <vehicle id="f1_1" pos="37.09" speed="9.28"/>
            </lane>
            <lane id="R12_1"/>
        </edge>
        <edge id="R45">
            <lane id="R45_0"/>
            <lane id="R45_1">
                <vehicle id="f1_0" pos="40.24" speed="13.10"/>
            </lane>
        </edge>
    </timestep>
    <timestep time="46.00">
        <edge id="D04">
            <lane id="D04_0">
                <vehicle id="f0_1" pos="51.34" speed="11.65"/>
            </lane>
            <lane id="D04_1"/>
        </edge>
        <edge id="L01">
            <lane id="L01_0"/>
            <lane id="L01_1">
                <vehicle id="f0_0" pos="123.65" speed="20.17"/>
            </lane>
        </edge>
        <edge id="R12">
            <lane id="R12_0">
                <vehicle id="f1_1" pos="48.13" speed="11.04"/>
            </lane>
            <lane id="R12_1"/>
        </edge>
        <edge id="R45">
            <lane id="R45_0"/>
            <lane id="R45_1">
                <vehicle id="f1_0" pos="54.73" speed="14.49"/>
            </lane>
        </edge>
    </timestep>
    <timestep time="47.00">
        <edge id="D04">
            <lane id="D04_0">
                <vehicle id="f0_1" pos="64.73" speed="13.39"/>
            </lane>
            <lane id="D04_1"/>
        </edge>
        <edge id="L01">
            <lane id="L01_0"/>
            <lane id="L01_1">
                <vehicle id="f0_0" pos="145.36" speed="21.71"/>
            </lane>
        </edge>
        <edge id="R12">
            <lane id="R12_0">
                <vehicle id="f1_1" pos="61.04" speed="12.91"/>
            </lane>
            <lane id="R12_1"/>
        </edge>
        <edge id="R45">
            <lane id="R45_0"/>
            <lane id="R45_1">
                <vehicle id="f1_0" pos="70.31" speed="15.59"/>
            </lane>
        </edge>
    </timestep>
    <timestep time="48.00">
        <edge id="D04">
            <lane id="D04_0">
                <vehicle id="f0_1" pos="79.75" speed="15.02"/>
            </lane>
            <lane id="D04_1"/>
        </edge>
        <edge id="L01">
            <lane id="L01_0"/>
            <lane id="L01_1">
                <vehicle id="f0_0" pos="168.30" speed="22.93"/>
            </lane>
        </edge>
        <edge id="R12">
            <lane id="R12_0">
                <vehicle id="f1_1" pos="75.97" speed="14.93"/>
            </lane>
            <lane id="R12_1"/>
        </edge>
        <edge id="R45">
            <lane id="R45_0"/>
            <lane id="R45_1">
                <vehicle id="f1_0" pos="87.24" speed="16.93"/>
            </lane>
        </edge>
    </timestep>
    <timestep time="49.00">
        <edge id=":n0_1">
            <lane id=":n0_1_0">
                <vehicle id="f0_0" pos="16.74" speed="24.58"/>
            </lane>
        </edge>
        <edge id="D04">
            <lane id="D04_0">
                <vehicle id="f0_1" pos="96.11" speed="16.36"/>
            </lane>
            <lane id="D04_1"/>
        </edge>
        <edge id="R12">
            <lane id="R12_0">
                <vehicle id="f1_1" pos="92.67" speed="16.70"/>
            </lane>
            <lane id="R12_1"/>
        </edge>
        <edge id="R45">
            <lane id="R45_0"/>
            <lane id="R45_1">
                <vehicle id="f1_0" pos="105.40" speed="18.16"/>
            </lane>
        </edge>
    </timestep>
    <timestep time="50.00">
        <edge id="D04">
            <lane id="D04_0">
                <vehicle id="f0_1" pos="113.62" speed="17.51"/>
            </lane>
            <lane id="D04_1">
                <vehicle id="f0_0" pos="18.18" speed="25.96"/>
            </lane>
        </edge>
        <edge id="R12">
            <lane id="R12_0">
                <vehicle id="f1_1" pos="111.22" speed="18.55"/>
            </lane>
            <lane id="R12_1"/>
        </edge>
        <edge id="R45">
            <lane id="R45_0"/>
            <lane id="R45_1">
                <vehicle id="f1_0" pos="124.82" speed="19.42"/>
            </lane>
        </edge>
    </timestep>
    <timestep time="51.00">
        <edge id="D04">
            <lane id="D04_0"/>
            <lane id="D04_1">
                <vehicle id="f0_0" pos="45.40" speed="27.22"/>
                <vehicle id="f0_1" pos="132.44" speed="18.82"/>
            </lane>
        </edge>
        <edge id="R12">
            <lane id="R12_0">
                <vehicle id="f1_1" pos="131.31" speed="20.10"/>
            </lane>
            <lane id="R12_1"/>
        </edge>
        <edge id="R45">
            <lane id="R45_0"/>
            <lane id="R45_1">
                <vehicle id="f1_0" pos="146.08" speed="21.26"/>
            </lane>
        </edge>
    </timestep>
    <timestep time="52.00">
        <edge id="D04">
            <lane id="D04_0"/>
            <lane id="D04_1">
                <vehicle id="f0_0" pos="71.89" speed="26.48"/>
                <vehicle id="f0_1" pos="152.39" speed="19.95"/>
            </lane>
        </edge>
        <edge id="R12">
            <lane id="R12_0">
                <vehicle id="f1_1" pos="152.46" speed="21.14"/>
            </lane>
            <lane id="R12_1"/>
        </edge>
        <edge id="R45">
            <lane id="R45_0"/>
            <lane id="R45_1">
                <vehicle id="f1_0" pos="169.02" speed="22.94"/>
            </lane>
        </edge>
    </timestep>
    <timestep time="53.00">
        <edge id=":n5_8">
            <lane id=":n5_8_0">
                <vehicle id="f1_0" pos="9.44" speed="24.32"/>
            </lane>
        </edge>
        <edge id="D04">
            <lane id="D04_0"/>
            <lane id="D04_1">
                <vehicle id="f0_0" pos="98.58" speed="26.70"/>
                <vehicle id="f0_1" pos="173.61" speed="21.22"/>
            </lane>
        </edge>
        <edge id="R12">
            <lane id="R12_0">
                <vehicle id="f1_1" pos="174.90" speed="22.44"/>
            </lane>
            <lane id="R12_1"/>
        </edge>
    </timestep>
    <timestep time="54.00">
        <edge id="D04">
            <lane id="D04_0"/>
            <lane id="D04_1">
                <vehicle id="f0_0" pos="125.28" speed="26.69"/>
                <vehicle id="f0_1" pos="196.31" speed="22.70"/>
            </lane>
        </edge>
        <edge id="D25">
            <lane id="D25_0"/>
            <lane id="D25_1">
                <vehicle id="f1_1" pos="9.63" speed="23.63"/>
            </lane>
        </edge>
        <edge id="U35">
            <lane id="U35_0"/>
            <lane id="U35_1">
                <vehicle id="f1_0" pos="9.49" speed="25.54"/>
            </lane>
        </edge>
    </timestep>
    <timestep time="55.00">
        <edge id="D04">
            <lane id="D04_0"/>
            <lane id="D04_1">
                <vehicle id="f0_0" pos="151.81" speed="26.54"/>
                <vehicle id="f0_1" pos="220.22" speed="23.91"/>
            </lane>
        </edge>
        <edge id="D25">
            <lane id="D25_0"/>
            <lane id="D25_1">
                <vehicle id="f1_1" pos="34.51" speed="24.88"/>
            </lane>
        </edge>